LAMMPS data file via write_data, version 29 Sep 2021, timestep = 110000

257 atoms
2 atom types

-0.07904887610868627 16.407317916108497 xlo xhi
-0.07904887610868627 16.407317916108497 ylo yhi
-0.07904887610868627 16.407317916108497 zlo zhi

Masses

1 14.007 # N
2 107.8682 # Ag

Atoms # atomic

3 2 1.9387784518827909 2.1748324611821293 3.7963405547391003 0 0 0
4 2 4.020045442820872 2.070350970046122 1.9238356878619696 0 0 0
5 2 2.0029700834834956 3.9647222574989405 1.7956080923478532 0 0 0
254 2 -0.06409256576523725 0.0023054255027826764 -0.028192613650353672 1 1 1
2 2 4.189415618613135 3.991435011173521 3.9152933135731605 0 0 0
9 2 6.1226995535558375 3.947548255378166 1.667382314669506 0 0 0
7 2 5.947495240958355 1.9136296784484401 3.7980991632979757 0 0 0
6 2 7.992232266048044 4.006102053620638 3.930916127159147 0 0 0
21 2 1.9532417217886326 8.010001693223215 2.0489388241621493 0 0 0
19 2 2.1356623047331516 6.201579508529284 3.909132382667215 0 0 0
32 2 0.0003310362401883066 5.990272038097488 1.8767778867423632 1 0 0
14 2 -0.03815551894876386 4.080566367393242 3.8637409934037827 1 0 0
20 2 4.134983652423067 5.974488058623792 1.6422286631224103 0 0 0
23 2 6.110726905189912 6.112435017828757 3.8662866888881156 0 0 0
67 2 1.9273530337935125 2.064857034116092 8.045510583815132 0 0 0
78 2 -0.07450424158925273 3.9467704318139827 8.144787165268193 1 0 0
80 2 -0.03663056584743486 2.003649935006359 5.936313750094395 1 0 0
114 2 3.946900081176537 -0.06088942198929316 8.137603591687498 0 1 0
126 2 -0.006835053080223669 0.03638751344840048 7.9542479730411415 1 1 0
71 2 6.091623388892035 1.8876146404856375 8.04326326848963 0 0 0
66 2 4.074036927434385 3.9410290922354827 8.107416962067848 0 0 0
68 2 4.139580772554628 1.8968144622816685 6.009624246234029 0 0 0
85 2 2.093083094599164 8.094194789100618 6.053512699730172 0 0 0
96 2 -0.01503862003912565 6.368832904514954 6.075986500384589 1 0 0
69 2 1.853898003280547 4.309467580226952 5.81887763917921 0 0 0
22 2 7.9940626362835925 8.08839726847153 4.159948491710648 0 0 0
87 2 6.105617655436689 5.793795894699294 8.084835830886115 0 0 0
73 2 6.245937657172656 4.0885416889829305 6.024035908760529 0 0 0
84 2 4.12679064264615 5.867164190533668 5.97380228865698 0 0 0
18 2 4.048883305669897 8.07064447281006 4.179756770115208 0 0 0
82 2 4.128523922354719 7.953284894332347 8.004913950534439 0 0 0
132 2 3.929580099680323 1.9570889604686594 10.107262331513395 0 0 0
131 2 1.8589099856099096 1.8882427934749402 12.122956215039391 0 0 0
181 2 1.9686973519855022 -0.07187369153570594 9.948490547360331 0 1 0
178 2 3.9705219520076174 -0.074735583087854 12.054051163207308 0 1 0
185 2 6.093894285224807 0.09120761462160104 10.066959833335925 0 1 0
137 2 6.01694594652381 3.761929812770871 10.167284261217677 0 0 0
134 2 7.8793320176186175 4.030751785273714 12.095765490607091 0 0 0
70 2 8.0439381742247 3.938427102511234 8.17178304752054 0 0 0
133 2 1.972856626183197 4.163430025482217 10.238499801187242 0 0 0
83 2 1.8066951189314968 6.120569408500396 8.20376556542218 0 0 0
149 2 1.8762189395030036 7.9739142057492955 10.143975553479397 0 0 0
153 2 5.940685557695984 8.10745731330214 10.129503369594637 0 0 0
148 2 4.10212745506279 6.086178579545254 10.123110513974787 0 0 0
86 2 8.085691060966756 8.114542438371945 8.20026021213489 0 0 0
152 2 7.898951864761064 6.005002958733842 10.059924822169037 0 0 0
150 2 8.097468439769017 8.050211846736847 12.08591457680578 0 0 0
130 2 3.983152352606057 3.7177529173323913 12.338333648010122 0 0 0
197 2 1.8199919448724642 3.8670639940320513 14.217195580834877 0 0 0
196 2 4.042194867584425 1.8558452164127952 14.360300007319816 0 0 0
195 2 2.1089440250903033 1.8947442810163801 16.348048873729905 0 0 0
199 2 6.277420202105047 1.758414334424326 16.209733048431683 0 0 0
135 2 6.062655007504069 1.7236303709939376 12.318073194945764 0 0 0
194 2 4.139997604148789 3.872153120979071 16.102153682372375 0 0 0
198 2 8.136163661704233 3.822246335546381 16.330737689717065 0 0 0
201 2 6.3016158079428894 3.7671500876969404 14.287795433194479 0 0 0
212 2 4.02219872185188 5.973153351150425 14.400440222549703 0 0 0
147 2 2.2105385501621204 5.988145327830502 12.384217391241375 0 0 0
211 2 1.969088320183332 6.043149162545475 16.264987926627597 0 0 0
151 2 5.871113751983567 5.9137351462329155 12.42464367904932 0 0 0
216 2 8.070079185024747 6.112535553446878 14.195317543920787 0 0 0
215 2 6.153942021938813 6.215735425716169 16.337592596440018 0 0 0
210 2 4.22011189649059 8.15018299074597 16.234766477549574 0 0 0
37 2 1.9281388042094414 12.27519464799987 1.8317890289122387 0 0 0
35 2 1.742197304418878 10.174078745216839 4.036870035941343 0 0 0
36 2 3.7940281241675717 9.971069116472899 2.1007918132868615 0 0 0
34 2 3.8068764914730227 12.262781984621729 3.911166078872167 0 0 0
41 2 5.991018965555638 12.018246711559426 2.079063430364403 0 0 0
25 2 6.014954067177987 8.257889607077493 1.9606129579010445 0 0 0
231 2 5.9750479086992065 10.266055602328978 -0.049233533610387126 0 0 1
51 2 1.7672496122284933 14.295328292719457 3.846750353204884 0 0 0
50 2 3.9197169079949647 16.237293651426768 3.7427331118120764 0 0 0
52 2 3.9526995381712737 14.200404908300527 1.7834578736913673 0 0 0
62 2 0.03704550488984121 16.37360122155951 3.7312619528301525 1 0 0
53 2 2.0507441394541956 16.389206215692077 1.71115253769374 0 0 0
55 2 6.092947942652575 14.326482745608494 3.9262051412305174 0 0 0
57 2 6.337410946041286 16.197428835558124 1.945228185065317 0 0 0
54 2 8.117313841145933 16.31674977131049 3.9059411565199724 0 0 0
112 2 -0.024464171366829733 10.195164634798003 6.003283502219318 1 0 0
94 2 -0.028281142236529624 8.3590655782888 7.895336055801268 1 0 0
100 2 3.8778628217930233 10.236927349528454 5.862500947390062 0 0 0
39 2 6.053885090529108 10.222261902831814 4.315925554502434 0 0 0
38 2 8.01563896936736 12.282019397273434 4.211727829063848 0 0 0
89 2 6.079614162085366 8.168485890199017 6.128117812479185 0 0 0
103 2 5.9898339325767695 10.151799238481077 8.079005826553074 0 0 0
101 2 1.6995574922918393 12.432410162930644 6.150066050326154 0 0 0
117 2 2.0102722501403285 16.403535748268393 5.958651017108376 0 0 0
116 2 3.892707053733619 14.125365874829239 6.161081666498024 0 0 0
128 2 0.06983868182947503 14.43561442815858 6.086102058192109 1 0 0
105 2 5.842527509793852 12.310629986783162 6.1038548755562365 0 0 0
118 2 8.058491053375082 16.370752418458252 7.994457716665316 0 0 0
121 2 5.85373549963305 16.28452282715709 6.1417563018045085 0 0 0
102 2 7.846420492182646 12.30826454175533 8.028700928189286 0 0 0
119 2 6.010640060333544 14.450459870047839 8.128000267927437 0 0 0
165 2 1.8979685068768035 12.089576145996453 10.428126980142812 0 0 0
164 2 3.827880193754289 10.069805532657043 10.117390706244615 0 0 0
146 2 3.9717575047078233 8.186929346706679 12.231537512177237 0 0 0
98 2 4.020714868462629 12.216193037156403 8.191181044910834 0 0 0
163 2 1.9606202835171476 10.051321223626458 12.209788399202006 0 0 0
99 2 1.891124442040133 10.24632235389191 8.234139765765594 0 0 0
169 2 5.923909854137387 12.284704566763525 10.059270030968062 0 0 0
167 2 6.095354731105981 10.172802951945949 11.979711779677963 0 0 0
168 2 7.920282416851909 10.379743411426373 10.007437234295553 0 0 0
166 2 8.00239311275606 12.180424773450135 12.132671830943888 0 0 0
179 2 1.921742611193622 14.228020756029688 12.020752654217906 0 0 0
115 2 1.9574218774922407 14.146265727132741 8.369075156563099 0 0 0
180 2 4.141324595856762 14.319480273431578 10.066108857523819 0 0 0
183 2 5.9240150477626905 14.315832361229218 12.282807069681875 0 0 0
184 2 7.95975660100866 14.503507795257937 10.138288138293692 0 0 0
227 2 2.036481412020405 10.172302874255832 16.290697555939985 0 0 0
162 2 3.8537885587322984 12.272002021969906 12.341745717062311 0 0 0
228 2 4.008406562443078 10.275725689439023 14.176434872273104 0 0 0
229 2 1.9383437555263638 12.184394262651992 14.332335386090081 0 0 0
213 2 1.966068918027681 8.166297068467925 14.366492747388289 0 0 0
232 2 8.014546917512662 10.109834799613562 14.304644122919896 0 0 0
226 2 4.150461550774383 12.080274888483798 16.400271020219275 0 0 0
230 2 8.047623178126313 12.262143881370928 16.2362007134615 0 0 0
233 2 6.037208964032615 12.154295032029081 14.192654461723066 0 0 0
217 2 6.012000652470896 8.258796376570794 14.18089757731505 0 0 0
214 2 8.069205174441718 8.292164011663024 16.381268080099808 0 0 0
243 2 1.6593332844983941 14.269730844129835 16.283755014900567 0 0 0
244 2 3.920254221902328 14.343664725909335 14.380130412099094 0 0 0
245 2 1.937459116012744 16.198543220436754 14.311887274998876 0 0 0
247 2 6.106225611566301 14.112947760574485 16.277895292006576 0 0 0
242 2 4.298495101393728 16.292596361651402 16.331616844717683 0 0 0
249 2 6.297688743245727 16.291265710736536 14.350126583495458 0 0 0
182 2 8.024731670451018 16.339521497339735 12.318952413222867 0 0 0
12 2 12.160243208379628 1.9011788264484621 1.9548421324343987 0 0 0
13 2 10.084101979776733 3.901218376461294 1.8395660163251941 0 0 0
8 2 8.170328197635145 1.9092417694528623 2.0253538083761633 0 0 0
203 2 10.096000969659858 1.738233295509891 -0.06927999896451238 0 0 1
11 2 10.116875557037552 1.8992291321355494 3.945340468361694 0 0 0
17 2 14.389086926769414 3.9715804847725265 2.0377131939817548 0 0 0
16 2 16.29772529434667 1.9790239900416347 1.8390876794147775 0 0 0
65 2 14.261211077721162 -0.021359608885069208 1.787956389748935 0 1 0
27 2 10.135138674587472 6.035527842886831 4.018426100506533 0 0 0
10 2 12.069877592678523 4.074770776089156 3.973135410802535 0 0 0
29 2 10.238325014332796 7.954560989483316 2.1072720148316906 0 0 0
24 2 8.182111042395947 6.1455754301479075 1.9738828070891667 0 0 0
218 2 12.088332733280787 7.978967285830086 0.006689524469183361 0 0 1
26 2 12.274886801037152 7.986004104786263 3.934902910220984 0 0 0
31 2 14.05277057273464 5.986439220143131 4.00747709507009 0 0 0
28 2 12.449861834596168 6.019676203275443 1.9280749975740243 0 0 0
222 2 16.37679745293895 8.08561797930046 -0.03190656922625757 0 0 1
33 2 14.409700659522697 7.953551165136483 2.069832873045576 0 0 0
75 2 10.202066512598073 1.9568236417577927 8.099305065044538 0 0 0
76 2 12.233329658104852 1.9894373727341481 6.089462667085692 0 0 0
77 2 10.116644422908065 3.838151768956445 5.975504785095736 0 0 0
72 2 8.185563031708723 1.9993652461038747 6.024062694289119 0 0 0
74 2 12.060138292206842 3.9789578293677774 8.148238121263175 0 0 0
15 2 14.090253631079769 1.9735350253468344 4.07139768679344 0 0 0
79 2 14.198153517973566 1.9587077439317442 8.07163179471152 0 0 0
92 2 12.240767566643918 6.070976917731185 6.239565190263983 0 0 0
91 2 9.939887665509652 5.917415650631316 7.930343004991903 0 0 0
88 2 8.233787602309885 5.959666908792646 5.948793079638789 0 0 0
93 2 10.104768862655144 8.083629861763932 6.063509125844206 0 0 0
97 2 14.17248821435426 8.09795751474465 6.0267378468313995 0 0 0
81 2 14.263687100027589 4.079649180120362 6.073476173708413 0 0 0
30 2 16.286012700162175 8.123967194475247 4.054531919383797 0 0 0
139 2 10.275448583025122 1.7419760755299558 12.004097695657324 0 0 0
141 2 10.000130543138512 3.985298355461488 10.125393639823994 0 0 0
138 2 12.02996937588516 3.8503223326409675 12.238849771743785 0 0 0
136 2 8.188964552176227 1.752487943585938 9.973473970835668 0 0 0
140 2 12.289015498810032 1.8122650323914422 10.12658907308917 0 0 0
143 2 14.170774662754946 1.8252038403998174 12.265151110508354 0 0 0
145 2 14.176927340357663 3.9935995304463434 10.146159924784993 0 0 0
144 2 16.11238510741268 2.0006823569058074 10.258531185629286 0 0 0
156 2 12.13665687941031 6.053419979682157 9.900442757767307 0 0 0
155 2 10.129353914153361 6.0796263673403 12.213241106115614 0 0 0
154 2 12.21279715865494 7.953179170179904 12.251392876971625 0 0 0
160 2 16.24076356575134 6.1609406211951185 10.511845520243781 0 0 0
95 2 14.429771333243119 6.098289269298747 8.214694622467002 0 0 0
159 2 14.07774026721528 5.873343516102667 12.263604531956316 0 0 0
200 2 8.308794911758518 1.8035209304374678 14.39136040173849 0 0 0
202 2 12.049414006693492 3.9522544293754693 16.355489238377388 0 0 0
205 2 10.019382796319604 3.9772319705673658 14.205759401951704 0 0 0
204 2 11.94352715472593 1.94794630043608 14.373047989632258 0 0 0
208 2 16.365567657596657 1.8061216748431952 14.294766660931328 0 0 0
209 2 13.896304410921008 3.993617523535155 14.179995354024655 0 0 0
207 2 14.32974293846499 2.125783024345609 16.16264146303726 0 0 0
257 2 14.32068013122301 -0.045975342544252756 14.34238789104509 0 1 0
142 2 16.298602229880878 3.8343389361723537 12.309900794964081 0 0 0
220 2 11.862666854844754 6.0773289797824654 14.379922539482967 0 0 0
219 2 10.193338454491427 5.989272228647015 16.385579534983364 0 0 0
223 2 14.362776556301812 5.919607154774455 16.239900484015937 0 0 0
224 2 16.281797274923026 6.013932833880494 14.06885088650275 0 0 0
225 2 14.185097579820598 7.9801256498923365 14.315705257068894 0 0 0
206 2 16.246118270968598 4.0743962584450415 16.24798334035423 0 0 0
44 2 12.179907526483806 10.168577713203968 1.8629021452854764 0 0 0
45 2 10.233720428609278 12.124744260040877 2.0065644350847545 0 0 0
43 2 10.295069607734439 10.1523732688451 3.9941399958229145 0 0 0
40 2 8.172822189896698 10.138431005055638 1.9503966974753424 0 0 0
234 2 12.199016780206582 12.100154958839608 -0.04552670415709815 0 0 1
238 2 16.237106214606243 12.136012804515275 -0.03711250111843995 0 0 1
46 2 16.366922759379808 12.229610321352686 4.041702107871331 0 0 0
239 2 14.403155723754795 10.022422702086033 0.07608940259386199 0 0 1
48 2 16.298941648359857 10.137604561681865 1.9799096328596488 0 0 0
56 2 8.248641067097418 14.094728914511657 2.140442007858895 0 0 0
246 2 8.17639042349522 16.211993037314585 -0.01536970805023695 0 0 1
59 2 10.312261568225201 14.141314672583887 3.9750324272098387 0 0 0
61 2 10.30549839248964 16.028598754859058 1.96210245182791 0 0 0
251 2 10.352515583087767 14.266642737656847 0.06329499694289811 0 0 1
64 2 16.184681773018692 14.368176789597015 1.86587131213236 0 0 0
49 2 14.23425383005027 12.295375272228597 1.947854497488052 0 0 0
58 2 12.361408625183323 16.329277959917107 3.971180196631371 0 0 0
60 2 12.448092301263017 14.407517319440732 1.929371535849885 0 0 0
63 2 14.504970519135055 14.327854301209305 3.9217969389886473 0 0 0
107 2 10.138016225762374 10.254685305611057 7.989989898469764 0 0 0
108 2 12.117240880967056 10.245889420158882 6.001990222902786 0 0 0
104 2 8.28472445787898 10.207935502842611 6.077699235072921 0 0 0
113 2 14.409730120575311 12.217724344377382 6.081947311262041 0 0 0
47 2 14.305062832144332 10.158340066121768 4.174586338869784 0 0 0
42 2 12.42650449687161 12.236541665470176 4.214046074718562 0 0 0
110 2 16.198772602806958 12.136937457158469 8.099094301560232 0 0 0
125 2 10.188013980975157 16.282487753884407 6.088128626960681 0 0 0
123 2 10.16139097382136 14.285726398739078 8.009833218313172 0 0 0
109 2 10.153037670038287 12.355953029329376 6.06222288621155 0 0 0
124 2 12.180112037169076 14.438200677794457 6.018096104569846 0 0 0
122 2 12.202345626224997 16.25920775511661 7.979057791137386 0 0 0
120 2 8.190532375456218 14.354706523094837 6.12707280709496 0 0 0
129 2 14.474765113634094 16.382429806414176 6.015205444902703 0 0 0
172 2 12.018800792893252 10.422785175673429 10.22036129589428 0 0 0
171 2 10.00912661896344 10.30871541719339 12.163867741741278 0 0 0
106 2 11.900247514942045 12.236353514851903 8.168693626911146 0 0 0
90 2 12.080127358738975 8.385365710252382 8.17507034229243 0 0 0
157 2 10.0949440961111 8.186456750704288 10.185418310051276 0 0 0
177 2 14.253238427458106 12.275210001964506 10.396656529691018 0 0 0
111 2 14.132850001502467 10.398669136014592 8.264198587804334 0 0 0
176 2 16.26132254505428 10.023156207532615 10.11792318372838 0 0 0
161 2 14.1432025574784 8.294663417782914 10.3525234583304 0 0 0
1 1 14.303123238471544 8.262565572384824 8.16736494136776 0 0 0
173 2 9.854253631194657 12.401341632130347 10.194456122015524 0 0 0
170 2 12.148845683412961 12.407874549585685 12.06712667404206 0 0 0
189 2 10.196524450789354 16.240614010220146 10.050002031980648 0 0 0
187 2 10.252992889549454 14.237322144264793 12.19515886492285 0 0 0
127 2 14.308557485508734 14.049436219144223 8.190513819133487 0 0 0
193 2 14.386186454455592 16.269879866370808 10.078828531057654 0 0 0
190 2 16.3762002506596 16.335791312823243 12.111902006948188 0 0 0
188 2 12.49079702395575 14.46167403433175 10.096778219415771 0 0 0
191 2 14.352524340714996 14.403351004337427 12.278422104576808 0 0 0
186 2 12.347475553312842 16.361160466708192 12.255008210671553 0 0 0
192 2 16.349065235886677 14.256205090936707 10.20052373073932 0 0 0
237 2 10.350047610268074 12.144163333349587 14.376795089116595 0 0 0
221 2 9.945547875466808 8.292903159525412 14.128838856398277 0 0 0
235 2 10.201837400604658 10.152784026529181 16.34281995563444 0 0 0
175 2 14.264671720625996 10.377819324764662 12.489444216239685 0 0 0
174 2 16.40616044329705 12.21131092039864 12.56262481935856 0 0 0
236 2 12.295676689539569 9.982960940525686 14.288749705066385 0 0 0
240 2 16.34259931235654 10.006175746898998 14.51328037668269 0 0 0
241 2 14.13188835612233 12.082478856229026 14.40186826230023 0 0 0
158 2 16.255343114412224 8.196630734747362 12.291739080740701 0 0 0
250 2 12.22770512538636 16.372719653428234 16.24136565629144 0 0 0
253 2 10.169539462532054 16.085555193072324 14.116262918288355 0 0 0
248 2 8.197107884046348 14.320715555531876 14.331984720806762 0 0 0
256 2 16.303910424599703 14.424205258062925 14.158928450415267 0 0 0
252 2 12.310716703681967 14.120144520181125 14.349820465172423 0 0 0
255 2 14.384489382546722 14.280349611119084 16.204922394108568 0 0 0

Velocities

3 2.1956599873671894 -2.043390775300293 1.4121883062522975
4 0.16245117783373703 -2.8383367087028066 -3.5176240381255783
5 0.058225035561710964 0.32365994910082896 0.9823008680044872
254 1.3265798329252259 1.079345478741624 -3.1261352663017488
2 -2.0690350260007238 3.49635664058837 -0.34597706361365493
9 3.0644577264560766 0.06431411648553166 1.6189208751619875
7 -2.1621061960597205 -2.4135380096513273 -2.1849366244646498
6 -0.3619947147566955 -4.608825523385753 1.0267294390497412
21 -3.6496952966704326 -2.7040995882998624 -1.3337213854910108
19 -0.06891041477082918 0.5234491325939554 -5.035500219791475
32 -1.3819861613072213 2.07347869018232 -0.039377732296493065
14 1.8617482358851143 1.7563290779896379 -0.7200809499980222
20 -1.2298842514448436 3.441575926359146 0.7789562324893515
23 -1.2560528194586866 0.7142678307046204 0.8973566944889968
67 0.05698641130447449 0.7140140918797969 -4.294201410541598
78 2.412269341395292 -0.9495683123000025 0.1538851003076254
80 -0.654461706997985 0.9726324641366084 -0.343205917828971
114 2.2751435104602993 -1.7315619151701651 2.7869653138096706
126 3.456411324864698 -1.0932894763327834 1.7437519464874809
71 -1.6643351915520463 0.21991853158265212 -0.5206995504483912
66 1.2852833727207995 1.114978256980836 2.5960514138919746
68 2.008383058053816 -1.6935529352800256 0.8181067651810988
85 1.3987342976419002 -2.9754975442315397 3.1540055918726173
96 -1.0390179350549529 1.460481171839071 4.294217240016869
69 3.2365106976631326 1.129271384361666 3.0089139037394843
22 -0.6322675748599558 0.8954121790356608 0.7792966396620373
87 -2.4655841733950665 2.2327446453562763 -1.7865382525294817
73 -1.057741324763567 5.091393268692658 1.1916892951487075
84 0.8342913415689491 3.752064752104245 -0.7886844882922621
18 2.29084407813887 3.5802373044230045 0.927273798480453
82 1.7087029830632763 -0.10950818023568709 -0.31024646751741936
132 1.3776107309092631 1.644202558650665 1.4424359644015943
131 -1.8520230611064088 0.7154575767707353 0.29600746271211875
181 -1.6066894807134486 -0.9421654093775921 1.4064272895887011
178 0.7157069449558008 2.6256212978341487 4.15356472918283
185 0.4605455810856436 2.146698117130479 -1.0264156187485962
137 0.11703336058859952 -2.9389839791999424 -0.982569393627634
134 1.2814836154157498 -0.45170666277836347 -1.4903190315458568
70 4.060767334260605 -0.5373552117918957 -0.5970071301819284
133 -0.9850120358227185 -1.1143777715310825 1.5695342118886295
83 -0.2842627978679345 -0.21936502900538707 -1.7078383648112252
149 -1.8877747485085705 0.05415839307321339 -0.7691531223232752
153 -0.37414646001766194 1.386442026302623 1.5886346978425077
148 -1.1262890902353437 -3.4367547590929197 2.055901506709564
86 -2.7578863214710476 -0.3702669436522861 -0.6388161174040866
152 -1.0080017399318304 -1.1690561593187236 -1.9383177053182632
150 -2.071307015823318 1.1215695999329973 -0.7654706390716011
130 3.612661342503298 -3.0700850284892978 -0.4524701719009766
197 2.166765632106722 0.08626782131542358 -0.07483137362655111
196 -2.2550041193262884 0.743862316661141 -0.5026660913571016
195 0.9065133464442718 1.8206402358384857 -1.4696630076531076
199 1.5322950207942283 -0.10877759465764493 3.2793458201613745
135 2.8400837175422957 1.69163557843601 0.3893966271828845
194 -0.7029189139909257 2.5498129060625936 -1.5378403750236782
198 -0.003653751962916904 -1.7725429045407208 0.7627590963568954
201 3.4819839192209208 -0.009302613410501911 0.6320960570301823
212 -0.04342336357882308 -1.830706821947666 -3.9152823332363975
147 -1.4052027333107397 -0.23442419796829725 1.3171675873444983
211 -1.5020912807280795 -0.17439684057974222 -0.7096652606039341
151 -0.35538333144349815 2.7475055765003913 -2.607439487803841
216 -2.5951955335314443 -0.4702852964741825 0.23019795434716075
215 -2.091683954093702 0.5288678749965446 3.4894403506329943
210 2.739401392215184 0.14470521585689064 0.2695964580008952
37 1.3019012881006586 -0.3451597864002046 -1.4851683041298942
35 -1.0681478969245113 -0.6585484470494571 0.6107140404615797
36 0.8715123141246697 -1.6385585818818922 0.9563175971023854
34 0.1883337929352078 -6.507486719138357 -1.430914447677287
41 -1.7458416988795304 0.45374873720703923 1.7043220774366628
25 -1.7783775145594876 0.47923978825737673 -1.2983660419857754
231 -1.8477291783080327 3.044335359667747 -1.5659125074998372
51 -3.0847792543319223 2.7248964362234136 0.8526920457176032
50 0.1060287438780605 2.493404529821847 2.321756246896236
52 -0.3546952024235231 0.9922828802994872 1.1146694014745493
62 0.36857190894186953 1.2505239021757772 -1.985699349002863
53 -0.6559465919835179 1.4637647082814673 1.6945742771173387
55 -0.6042421557734572 -2.0307563878308827 0.4325287746121476
57 -1.6345422904027138 2.7557904540263434 -0.5414420662974648
54 -2.222286345442701 1.749118422654368 -0.6418816590204235
112 -2.3349086886105463 0.006640414111563293 1.0936068378970294
94 -0.5033607337294553 0.3752230746334588 -0.28060529396236883
100 -1.504555926379166 -0.3656646769087847 1.019200738807798
39 0.35414468962033463 2.9372789920218163 -0.15454028630572797
38 0.7991700094299383 0.06421049608545416 -2.444560319574676
89 -1.4664369608622712 3.79282063794946 5.824038492014012
103 4.340248905489057 1.660258596887532 3.736997337223556
101 1.917273114345845 -2.055652548771046 1.351038236140666
117 1.6709845927084273 1.8530030176915502 0.38663511079856794
116 1.829643258808427 -1.3827139097580572 -2.202868657715499
128 2.1872577760818266 1.4584052589788192 1.4230246757378122
105 0.18676722848722507 -3.014562634789419 3.0965540702254524
118 -0.932918583423407 1.8580636259193057 -2.7710167835522292
121 -1.1560620620185469 -0.8385975531581923 -0.026595151370279294
102 0.48120408978065415 -2.0817210510058173 1.5794222076817308
119 -0.7527274645173223 -2.194280988647311 -2.278340507278841
165 -3.7325673927852163 1.4369797892071587 2.445549089999782
164 0.721910715554197 -0.7579483352634325 -1.1945857829625497
146 2.51239759123835 0.2955641758276004 2.2922580166023674
98 4.305413738957038 2.3358048296030764 -2.155308351288555
163 0.42379448598765407 0.814025344544456 -1.8071360819680193
99 2.7817271565109043 -1.6647501729768706 1.4646699115030875
169 3.0160410565738354 0.6077344305252264 -3.167640789892874
167 -0.20084389565739566 1.4985936424803412 0.8989784226905281
168 -0.8956567529185604 1.1230599817234992 -0.33664353593766544
166 -0.27381178906768805 0.6373910647272165 3.2764254844663103
179 1.0097660594543663 -1.8907107597562616 5.458143761903958
115 -0.37364491220606605 0.001502432514333382 -0.6516676033602219
180 -0.683292895926999 0.18864826281241195 0.1833767507979115
183 0.05109541153051336 1.083325277736947 -0.6896450498186028
184 -5.015761586733423 -0.0026588579325501505 -4.946079651033605
227 1.1567009888022939 1.074037757057454 1.7099383105196073
162 3.8331623767473904 0.3047591058591663 2.1593865492069484
228 2.579206098713343 -0.40668567978769 -2.507796416631906
229 4.045637379924041 0.3899050190824168 1.0709180859212792
213 0.5027141088353522 -1.6409101268896404 -1.3178287754397677
232 -3.1157334864776627 -3.511265346904581 -1.7379507781591887
226 -1.9339594183309163 -3.9871873079829148 0.2767209526066606
230 -1.3085475178913062 -0.41813244470548433 -2.050993171060883
233 -0.9628707155777394 1.6905008005011812 -0.853671899485207
217 -0.010314405883035043 2.714866049878642 1.3800351917956806
214 1.5310309837174936 1.3232192435407975 -2.7736433524628707
243 -1.057729698063501 3.437592945167284 -1.0612180247695908
244 -2.588296747695273 -2.343160442622114 -1.0260372080659694
245 1.6253257764382163 1.7133450731286424 0.21005622804168125
247 -0.27661248685376744 -0.8854935297983292 1.305970655742817
242 -3.423221491914658 -2.889702231060559 -0.48950207321531813
249 -1.3234387355804547 -1.103181259317666 -5.084339809044256
182 0.8209243205051836 4.46542341659658 -0.05290896943627908
12 -0.5153304813418773 -0.244936631447208 -3.31025117173225
13 -0.5344945350691013 1.4784285649096263 -1.8013382903148674
8 -1.5606605666008377 0.10177665731514543 -0.5080963373691886
203 2.113347458935153 -0.5000582922421103 -0.1537012434313453
11 -2.534729425081915 -3.9514440069068906 -3.311558156017828
17 1.267689316570711 2.237594285586447 -1.1872600527574768
16 -3.2854018265983997 0.35244907918388796 -4.682595038246484
65 -3.6019339947442823 -1.7020900853696876 1.1020211406050144
27 -4.080810158063328 -1.4826111275168352 -3.2831548904778534
10 -3.8883701817161396 -1.3473723729882638 0.19936320734241791
29 0.9389043736196574 -0.8234353729082624 0.06318069863306815
24 0.907166678449268 1.6955358347462923 -1.4995774662905856
218 0.5215707609651491 2.0545502908875406 -2.1998941575490383
26 1.4048035366402671 0.04147785008691719 1.6722988678292399
31 -2.44810697860699 0.9374548484838726 1.9272502408427243
28 0.23550010588328896 1.143089283852132 1.049311074821005
222 1.895740416678302 -0.990604695929899 0.9163106394120809
33 2.2820139918833795 -1.5542975694929357 1.6975038937242772
75 3.745426786049415 1.096321929859267 -0.4171475553244827
76 -1.2981174551028976 0.42787285088101623 2.0592668308966235
77 1.6320190782198016 -1.166417702580635 0.8333868829231474
72 0.8077261783481803 -3.182487718263068 -0.10157112289510667
74 -2.4567156089152493 0.7185988607464775 -3.664930673998116
15 3.809446716519595 -1.4342414205182454 2.1615584697734294
79 0.9681587323145082 -1.3458552224201303 0.9310234509936187
92 1.70009829795124 -0.044287591752804355 -2.8455562439557407
91 -0.06408829288362389 -0.8286888617434606 1.1961670508126336
88 -1.2095234607034566 -2.2991861945483554 -0.9324756385554815
93 2.2144877263525005 2.495017179875656 -1.1311987721021448
97 -0.019980830740158616 1.517989990072246 0.2417149285336503
81 2.4478350926276704 -1.6053800972251908 -1.554994627205622
30 1.4038301495496783 -1.2855987727217921 0.08887378277957358
139 1.1280450433395306 -3.018837975228922 2.1351925080091227
141 1.3851770263364078 -0.577466594782949 1.1884236198259606
138 4.812324804008774 1.3412506321517763 -0.6851915584791289
136 -1.6348361285336312 -0.3160595948635539 -1.396514480960342
140 1.3940447743664783 -0.9069512966899291 -3.4135611135979445
143 -1.987938657053963 -1.3046246897165397 2.413195683511857
145 -0.29336302092419486 2.972170910034911 2.524361196245794
144 0.15474798475557505 0.3291804257556439 0.4324020572244112
156 -0.2337732764252247 -2.3495160394113683 0.5615672925705428
155 1.62437689970867 -3.090666829737658 -4.6928080411506015
154 2.6902991272711194 -1.961163945868229 -3.105085340579935
160 -0.2464116993084671 3.1166910036794406 4.115032285951188
95 2.8913525293906375 -0.14780619330320072 2.890800267351161
159 -2.9530859397951867 -0.22257351171851822 -1.957476298975629
200 -2.303449379339449 -2.070894555268137 0.5773009503278907
202 1.0990435033833648 0.6358449217259948 3.380098771137967
205 -2.0475729077442804 1.417779874924021 1.2737770635649504
204 -2.2438806383285073 -1.997161230204317 -0.2761532851133327
208 1.762685333241733 -0.9583223032351385 -3.870764095340385
209 -1.898224512814413 -2.186613202564887 1.1440800220022742
207 2.398974981012797 0.7907390872411705 0.24709664143841858
257 2.267062485687869 -2.877100162566769 -1.429400058905154
142 -2.5146602757113903 -3.2275741168774057 0.7738498718490927
220 2.6434235264134784 1.0178126367994367 0.78577231175511
219 -0.7065961632524453 2.022669043462481 -0.4618125911851597
223 1.15702562939563 -3.1989641112721485 -1.6235418695690202
224 -0.8055045045836047 0.32074570505252176 -0.8962192940498666
225 -0.12154591305062723 -1.1135791168907818 0.28150702498361707
206 -0.7827228677022929 -3.2877257871253227 -1.0640416381991817
44 -5.64817798330918 -0.9775547229536633 1.9389362629162405
45 -0.5970075570096884 -1.9760194056000477 -1.5118428914433206
43 -3.089811741491771 0.9268149344281952 0.7811338824028694
40 -0.4427244936792922 2.8316017725521156 -0.9378465085920674
234 1.8105959156632534 -1.1161707818733992 1.1185280217027989
238 -1.116573131979113 1.3535437095435774 -3.0148836658090756
46 -0.5106377078044446 -1.434707467091315 0.26615882244922895
239 -1.4715793102228374 -1.9159335177770103 -3.7713725219785137
48 5.56547534010092 1.133795965514064 2.0690696563471906
56 -1.1946271464897706 -0.8111247750222877 -0.9427900028153626
246 0.946342228989703 -4.955215666137671 4.470786620706767
59 -4.724124278226 4.6317103262628505 2.3537466676153214
61 1.0533542694165798 -0.15251902729185388 0.1516858655390559