 # File generated with Atomsk by user on 2025-11-28 17:41:10
  
         257  atoms
           2  atom types
 
      0.000000000000      16.328269040000  xlo xhi
      0.000000000000      16.328269040000  ylo yhi
      0.000000000000      16.328269040000  zlo zhi
 
Masses
 
            1   14.00700000             # N
            2   107.86820000            # Ag
 
Atoms # atomic
 
         1    1       14.225900000000       8.102810000000       8.102810000000
         2    2        4.020744470000       4.020744330000       4.020744470000
         3    2        1.979710470000       1.979710610000       4.020744430000
         4    2        4.020744490000       1.979710620000       1.979710520000
         5    2        1.979710500000       4.020744350000       1.979710500000
         6    2        8.102811730000       4.020744330000       4.020744470000
         7    2        6.061777730000       1.979710610000       4.020744430000
         8    2        8.102811750000       1.979710620000       1.979710520000
         9    2        6.061777760000       4.020744350000       1.979710500000
        10    2       12.184878990000       4.020744330000       4.020744470000
        11    2       10.143844990000       1.979710610000       4.020744430000
        12    2       12.184879010000       1.979710620000       1.979710520000
        13    2       10.143845020000       4.020744350000       1.979710500000
        14    2       16.266946250000       4.020744330000       4.020744470000
        15    2       14.225912250000       1.979710610000       4.020744430000
        16    2       16.266946270000       1.979710620000       1.979710520000
        17    2       14.225912280000       4.020744350000       1.979710500000
        18    2        4.020744470000       8.102811590000       4.020744470000
        19    2        1.979710470000       6.061777870000       4.020744430000
        20    2        4.020744490000       6.061777880000       1.979710520000
        21    2        1.979710500000       8.102811610000       1.979710500000
        22    2        8.102811730000       8.102811590000       4.020744470000
        23    2        6.061777730000       6.061777870000       4.020744430000
        24    2        8.102811750000       6.061777880000       1.979710520000
        25    2        6.061777760000       8.102811610000       1.979710500000
        26    2       12.184878990000       8.102811590000       4.020744470000
        27    2       10.143844990000       6.061777870000       4.020744430000
        28    2       12.184879010000       6.061777880000       1.979710520000
        29    2       10.143845020000       8.102811610000       1.979710500000
        30    2       16.266946250000       8.102811590000       4.020744470000
        31    2       14.225912250000       6.061777870000       4.020744430000
        32    2       16.266946270000       6.061777880000       1.979710520000
        33    2       14.225912280000       8.102811610000       1.979710500000
        34    2        4.020744470000      12.184878850000       4.020744470000
        35    2        1.979710470000      10.143845130000       4.020744430000
        36    2        4.020744490000      10.143845140000       1.979710520000
        37    2        1.979710500000      12.184878870000       1.979710500000
        38    2        8.102811730000      12.184878850000       4.020744470000
        39    2        6.061777730000      10.143845130000       4.020744430000
        40    2        8.102811750000      10.143845140000       1.979710520000
        41    2        6.061777760000      12.184878870000       1.979710500000
        42    2       12.184878990000      12.184878850000       4.020744470000
        43    2       10.143844990000      10.143845130000       4.020744430000
        44    2       12.184879010000      10.143845140000       1.979710520000
        45    2       10.143845020000      12.184878870000       1.979710500000
        46    2       16.266946250000      12.184878850000       4.020744470000
        47    2       14.225912250000      10.143845130000       4.020744430000
        48    2       16.266946270000      10.143845140000       1.979710520000
        49    2       14.225912280000      12.184878870000       1.979710500000
        50    2        4.020744470000      16.266946110000       4.020744470000
        51    2        1.979710470000      14.225912390000       4.020744430000
        52    2        4.020744490000      14.225912400000       1.979710520000
        53    2        1.979710500000      16.266946130000       1.979710500000
        54    2        8.102811730000      16.266946110000       4.020744470000
        55    2        6.061777730000      14.225912390000       4.020744430000
        56    2        8.102811750000      14.225912400000       1.979710520000
        57    2        6.061777760000      16.266946130000       1.979710500000
        58    2       12.184878990000      16.266946110000       4.020744470000
        59    2       10.143844990000      14.225912390000       4.020744430000
        60    2       12.184879010000      14.225912400000       1.979710520000
        61    2       10.143845020000      16.266946130000       1.979710500000
        62    2       16.266946250000      16.266946110000       4.020744470000
        63    2       14.225912250000      14.225912390000       4.020744430000
        64    2       16.266946270000      14.225912400000       1.979710520000
        65    2       14.225912280000      16.266946130000       1.979710500000
        66    2        4.020744470000       4.020744330000       8.102811730000
        67    2        1.979710470000       1.979710610000       8.102811690000
        68    2        4.020744490000       1.979710620000       6.061777780000
        69    2        1.979710500000       4.020744350000       6.061777760000
        70    2        8.102811730000       4.020744330000       8.102811730000
        71    2        6.061777730000       1.979710610000       8.102811690000
        72    2        8.102811750000       1.979710620000       6.061777780000
        73    2        6.061777760000       4.020744350000       6.061777760000
        74    2       12.184878990000       4.020744330000       8.102811730000
        75    2       10.143844990000       1.979710610000       8.102811690000
        76    2       12.184879010000       1.979710620000       6.061777780000
        77    2       10.143845020000       4.020744350000       6.061777760000
        78    2       16.266946250000       4.020744330000       8.102811730000
        79    2       14.225912250000       1.979710610000       8.102811690000
        80    2       16.266946270000       1.979710620000       6.061777780000
        81    2       14.225912280000       4.020744350000       6.061777760000
        82    2        4.020744470000       8.102811590000       8.102811730000
        83    2        1.979710470000       6.061777870000       8.102811690000
        84    2        4.020744490000       6.061777880000       6.061777780000
        85    2        1.979710500000       8.102811610000       6.061777760000
        86    2        8.102811730000       8.102811590000       8.102811730000
        87    2        6.061777730000       6.061777870000       8.102811690000
        88    2        8.102811750000       6.061777880000       6.061777780000
        89    2        6.061777760000       8.102811610000       6.061777760000
        90    2       12.184878990000       8.102811590000       8.102811730000
        91    2       10.143844990000       6.061777870000       8.102811690000
        92    2       12.184879010000       6.061777880000       6.061777780000
        93    2       10.143845020000       8.102811610000       6.061777760000
        94    2       16.266946250000       8.102811590000       8.102811730000
        95    2       14.225912250000       6.061777870000       8.102811690000
        96    2       16.266946270000       6.061777880000       6.061777780000
        97    2       14.225912280000       8.102811610000       6.061777760000
        98    2        4.020744470000      12.184878850000       8.102811730000
        99    2        1.979710470000      10.143845130000       8.102811690000
       100    2        4.020744490000      10.143845140000       6.061777780000
       101    2        1.979710500000      12.184878870000       6.061777760000
       102    2        8.102811730000      12.184878850000       8.102811730000
       103    2        6.061777730000      10.143845130000       8.102811690000
       104    2        8.102811750000      10.143845140000       6.061777780000
       105    2        6.061777760000      12.184878870000       6.061777760000
       106    2       12.184878990000      12.184878850000       8.102811730000
       107    2       10.143844990000      10.143845130000       8.102811690000
       108    2       12.184879010000      10.143845140000       6.061777780000
       109    2       10.143845020000      12.184878870000       6.061777760000
       110    2       16.266946250000      12.184878850000       8.102811730000
       111    2       14.225912250000      10.143845130000       8.102811690000
       112    2       16.266946270000      10.143845140000       6.061777780000
       113    2       14.225912280000      12.184878870000       6.061777760000
       114    2        4.020744470000      16.266946110000       8.102811730000
       115    2        1.979710470000      14.225912390000       8.102811690000
       116    2        4.020744490000      14.225912400000       6.061777780000
       117    2        1.979710500000      16.266946130000       6.061777760000
       118    2        8.102811730000      16.266946110000       8.102811730000
       119    2        6.061777730000      14.225912390000       8.102811690000
       120    2        8.102811750000      14.225912400000       6.061777780000
       121    2        6.061777760000      16.266946130000       6.061777760000
       122    2       12.184878990000      16.266946110000       8.102811730000
       123    2       10.143844990000      14.225912390000       8.102811690000
       124    2       12.184879010000      14.225912400000       6.061777780000
       125    2       10.143845020000      16.266946130000       6.061777760000
       126    2       16.266946250000      16.266946110000       8.102811730000
       127    2       14.225912250000      14.225912390000       8.102811690000
       128    2       16.266946270000      14.225912400000       6.061777780000
       129    2       14.225912280000      16.266946130000       6.061777760000
       130    2        4.020744470000       4.020744330000      12.184878990000
       131    2        1.979710470000       1.979710610000      12.184878950000
       132    2        4.020744490000       1.979710620000      10.143845040000
       133    2        1.979710500000       4.020744350000      10.143845020000
       134    2        8.102811730000       4.020744330000      12.184878990000
       135    2        6.061777730000       1.979710610000      12.184878950000
       136    2        8.102811750000       1.979710620000      10.143845040000
       137    2        6.061777760000       4.020744350000      10.143845020000
       138    2       12.184878990000       4.020744330000      12.184878990000
       139    2       10.143844990000       1.979710610000      12.184878950000
       140    2       12.184879010000       1.979710620000      10.143845040000
       141    2       10.143845020000       4.020744350000      10.143845020000
       142    2       16.266946250000       4.020744330000      12.184878990000
       143    2       14.225912250000       1.979710610000      12.184878950000
       144    2       16.266946270000       1.979710620000      10.143845040000
       145    2       14.225912280000       4.020744350000      10.143845020000
       146    2        4.020744470000       8.102811590000      12.184878990000
       147    2        1.979710470000       6.061777870000      12.184878950000
       148    2        4.020744490000       6.061777880000      10.143845040000
       149    2        1.979710500000       8.102811610000      10.143845020000
       150    2        8.102811730000       8.102811590000      12.184878990000
       151    2        6.061777730000       6.061777870000      12.184878950000
       152    2        8.102811750000       6.061777880000      10.143845040000
       153    2        6.061777760000       8.102811610000      10.143845020000
       154    2       12.184878990000       8.102811590000      12.184878990000
       155    2       10.143844990000       6.061777870000      12.184878950000
       156    2       12.184879010000       6.061777880000      10.143845040000
       157    2       10.143845020000       8.102811610000      10.143845020000
       158    2       16.266946250000       8.102811590000      12.184878990000
       159    2       14.225912250000       6.061777870000      12.184878950000
       160    2       16.266946270000       6.061777880000      10.143845040000
       161    2       14.225912280000       8.102811610000      10.143845020000
       162    2        4.020744470000      12.184878850000      12.184878990000
       163    2        1.979710470000      10.143845130000      12.184878950000
       164    2        4.020744490000      10.143845140000      10.143845040000
       165    2        1.979710500000      12.184878870000      10.143845020000
       166    2        8.102811730000      12.184878850000      12.184878990000
       167    2        6.061777730000      10.143845130000      12.184878950000
       168    2        8.102811750000      10.143845140000      10.143845040000
       169    2        6.061777760000      12.184878870000      10.143845020000
       170    2       12.184878990000      12.184878850000      12.184878990000
       171    2       10.143844990000      10.143845130000      12.184878950000
       172    2       12.184879010000      10.143845140000      10.143845040000
       173    2       10.143845020000      12.184878870000      10.143845020000
       174    2       16.266946250000      12.184878850000      12.184878990000
       175    2       14.225912250000      10.143845130000      12.184878950000
       176    2       16.266946270000      10.143845140000      10.143845040000
       177    2       14.225912280000      12.184878870000      10.143845020000
       178    2        4.020744470000      16.266946110000      12.184878990000
       179    2        1.979710470000      14.225912390000      12.184878950000
       180    2        4.020744490000      14.225912400000      10.143845040000
       181    2        1.979710500000      16.266946130000      10.143845020000
       182    2        8.102811730000      16.266946110000      12.184878990000
       183    2        6.061777730000      14.225912390000      12.184878950000
       184    2        8.102811750000      14.225912400000      10.143845040000
       185    2        6.061777760000      16.266946130000      10.143845020000
       186    2       12.184878990000      16.266946110000      12.184878990000
       187    2       10.143844990000      14.225912390000      12.184878950000
       188    2       12.184879010000      14.225912400000      10.143845040000
       189    2       10.143845020000      16.266946130000      10.143845020000
       190    2       16.266946250000      16.266946110000      12.184878990000
       191    2       14.225912250000      14.225912390000      12.184878950000
       192    2       16.266946270000      14.225912400000      10.143845040000
       193    2       14.225912280000      16.266946130000      10.143845020000
       194    2        4.020744470000       4.020744330000      16.266946250000
       195    2        1.979710470000       1.979710610000      16.266946210000
       196    2        4.020744490000       1.979710620000      14.225912300000
       197    2        1.979710500000       4.020744350000      14.225912280000
       198    2        8.102811730000       4.020744330000      16.266946250000
       199    2        6.061777730000       1.979710610000      16.266946210000
       200    2        8.102811750000       1.979710620000      14.225912300000
       201    2        6.061777760000       4.020744350000      14.225912280000
       202    2       12.184878990000       4.020744330000      16.266946250000
       203    2       10.143844990000       1.979710610000      16.266946210000
       204    2       12.184879010000       1.979710620000      14.225912300000
       205    2       10.143845020000       4.020744350000      14.225912280000
       206    2       16.266946250000       4.020744330000      16.266946250000
       207    2       14.225912250000       1.979710610000      16.266946210000
       208    2       16.266946270000       1.979710620000      14.225912300000
       209    2       14.225912280000       4.020744350000      14.225912280000
       210    2        4.020744470000       8.102811590000      16.266946250000
       211    2        1.979710470000       6.061777870000      16.266946210000
       212    2        4.020744490000       6.061777880000      14.225912300000
       213    2        1.979710500000       8.102811610000      14.225912280000
       214    2        8.102811730000       8.102811590000      16.266946250000
       215    2        6.061777730000       6.061777870000      16.266946210000
       216    2        8.102811750000       6.061777880000      14.225912300000
       217    2        6.061777760000       8.102811610000      14.225912280000
       218    2       12.184878990000       8.102811590000      16.266946250000
       219    2       10.143844990000       6.061777870000      16.266946210000
       220    2       12.184879010000       6.061777880000      14.225912300000
       221    2       10.143845020000       8.102811610000      14.225912280000
       222    2       16.266946250000       8.102811590000      16.266946250000
       223    2       14.225912250000       6.061777870000      16.266946210000
       224    2       16.266946270000       6.061777880000      14.225912300000
       225    2       14.225912280000       8.102811610000      14.225912280000
       226    2        4.020744470000      12.184878850000      16.266946250000
       227    2        1.979710470000      10.143845130000      16.266946210000
       228    2        4.020744490000      10.143845140000      14.225912300000
       229    2        1.979710500000      12.184878870000      14.225912280000
       230    2        8.102811730000      12.184878850000      16.266946250000
       231    2        6.061777730000      10.143845130000      16.266946210000
       232    2        8.102811750000      10.143845140000      14.225912300000
       233    2        6.061777760000      12.184878870000      14.225912280000
       234    2       12.184878990000      12.184878850000      16.266946250000
       235    2       10.143844990000      10.143845130000      16.266946210000
       236    2       12.184879010000      10.143845140000      14.225912300000
       237    2       10.143845020000      12.184878870000      14.225912280000
       238    2       16.266946250000      12.184878850000      16.266946250000
       239    2       14.225912250000      10.143845130000      16.266946210000
       240    2       16.266946270000      10.143845140000      14.225912300000
       241    2       14.225912280000      12.184878870000      14.225912280000
       242    2        4.020744470000      16.266946110000      16.266946250000
       243    2        1.979710470000      14.225912390000      16.266946210000
       244    2        4.020744490000      14.225912400000      14.225912300000
       245    2        1.979710500000      16.266946130000      14.225912280000
       246    2        8.102811730000      16.266946110000      16.266946250000
       247    2        6.061777730000      14.225912390000      16.266946210000
       248    2        8.102811750000      14.225912400000      14.225912300000
       249    2        6.061777760000      16.266946130000      14.225912280000
       250    2       12.184878990000      16.266946110000      16.266946250000
       251    2       10.143844990000      14.225912390000      16.266946210000
       252    2       12.184879010000      14.225912400000      14.225912300000
       253    2       10.143845020000      16.266946130000      14.225912280000
       254    2       16.266946250000      16.266946110000      16.266946250000
       255    2       14.225912250000      14.225912390000      16.266946210000
       256    2       16.266946270000      14.225912400000      14.225912300000
       257    2       14.225912280000      16.266946130000      14.225912280000
